                         Program Version 4.2.1 -  RELEASE  -
|  1> # Unrestricted Hartree-Fock single point calculation
|  2> # with tight SCF convergence criteria
|  3> #
|  4> ! UHF SVP TightSCF pal8
|  5>
|  6> * xyz 1 2
|  7>   C 0.0 0.0 0.0
|  8>   O 0.0 0.0 1.13
|  9> **                         ****END OF INPUT****

CARTESIAN COORDINATES (ANGSTROEM)
---------------------------------
  C      0.000000    0.000000    0.000000
  O      0.000000    0.000000    1.130000

 Total Charge           Charge          ....    1
 Multiplicity           Mult            ....    2
 Number of Electrons    NEL             ....   13
 Basis Dimension        Dim             ....   28

ORBITAL ENERGIES
----------------
                 SPIN UP ORBITALS
  NO   OCC          E(Eh)            E(eV)
   0   1.0000     -21.074356      -573.4624
   1   1.0000     -11.872269      -323.0609
   2   1.0000      -1.878249       -51.1098
   3   1.0000      -1.196098       -32.5475
   4   1.0000      -1.079323       -29.3699
   5   1.0000      -0.993581       -27.0367
   6   1.0000      -0.993581       -27.0367
   7   0.0000      -0.245044        -6.6680
   8   0.0000      -0.245044        -6.6680
   9   0.0000       0.036724         0.9993
  10   0.0000       0.165920         4.5149
  11   0.0000       0.274384         7.4664

                 SPIN DOWN ORBITALS
  NO   OCC          E(Eh)            E(eV)
   0   1.0000     -21.106788      -574.3449
   1   1.0000     -11.806093      -321.2601
   2   1.0000      -1.918950       -52.2173
   3   1.0000      -1.166830       -31.7511
   4   1.0000      -1.067223       -29.0406
   5   1.0000      -1.067223       -29.0406
   6   0.0000      -0.402917       -10.9639
   7   0.0000      -0.173174        -4.7123
   8   0.0000      -0.173174        -4.7123
   9   0.0000       0.074607         2.0302
  10   0.0000       0.280632         7.6364

MULLIKEN ATOMIC CHARGES AND SPIN POPULATIONS
--------------------------------------------
   0 C :    0.806583    1.718361
   1 O :    0.193417   -0.718361
Sum of atomic charges         :    1.0000000

LOEWDIN ATOMIC CHARGES AND SPIN POPULATIONS
-------------------------------------------
   0 C :    0.688006    1.601738
   1 O :    0.311994   -0.601738

  Mayer bond orders larger than 0.100000
B(  0-C ,  1-O ) :   2.4875

FINAL SINGLE POINT ENERGY      -112.166873794530

DIPOLE MOMENT
-------------
                                X             Y             Z
Electronic contribution:     -0.00000       0.00000      -1.25218
Nuclear contribution   :      0.00000       0.00000       0.00717
                        -----------------------------------------
Total Dipole Moment    :     -0.00000       0.00000      -1.24502
                        -----------------------------------------
Magnitude (a.u.)       :      1.24502
Magnitude (Debye)      :      3.16458

Rotational constants in cm-1:     0.000000     1.924337     1.924337
Rotational constants in MHz :     0.000000 57690.170226 57690.170226

                             ****ORCA TERMINATED NORMALLY****
TOTAL RUN TIME: 0 days 0 hours 0 minutes 13 seconds 445 msec
