                         Program Version 4.2.1 -  RELEASE  -
|  1> # avogadro generated ORCA input file
|  2> # Advanced Mode
|  3> #
|  4> ! RHF SP def2-SVP NormalPrint NormalSCF pal4
|  5> %scf
|  6> 	MaxIter 125
|  7> 	CNVDIIS 1
|  8> 	CNVSOSCF 1
|  9> end
| 10>
| 11> * xyz 0 1
| 12>    C       -6.15364        3.58684        0.00000
| 13>    C       -2.21209        3.47374       -0.00000
| 14>    H       -6.50367        3.82334        0.98308
| 15>    H       -6.53783        2.63291       -0.29550
| 16>    H       -6.48899        4.33495       -0.68758
| 17>    H       -1.87675        2.72562        0.68758
| 18>    H       -1.82791        4.42767        0.29550
| 19>    H       -1.86206        3.23724       -0.98308
| 20> *
| 21>
| 22>
| 23>                          ****END OF INPUT****

CARTESIAN COORDINATES (ANGSTROEM)
---------------------------------
  C     -6.153640    3.586840    0.000000
  C     -2.212090    3.473740   -0.000000
  H     -6.503670    3.823340    0.983080
  H     -6.537830    2.632910   -0.295500
  H     -6.488990    4.334950   -0.687580
  H     -1.876750    2.725620    0.687580
  H     -1.827910    4.427670    0.295500
  H     -1.862060    3.237240   -0.983080

 Total Charge           Charge          ....    0
 Multiplicity           Mult            ....    1
 Number of Electrons    NEL             ....   18
 Basis Dimension        Dim             ....   58

ORBITAL ENERGIES
----------------

  NO   OCC          E(Eh)            E(eV)
   0   2.0000     -11.276088      -306.8380
   1   2.0000     -11.276056      -306.8371
   2   2.0000      -0.919794       -25.0289
   3   2.0000      -0.915986       -24.9252
   4   2.0000      -0.572388       -15.5755
   5   2.0000      -0.572387       -15.5754
   6   2.0000      -0.571434       -15.5495
   7   2.0000      -0.571433       -15.5495
   8   2.0000      -0.235640        -6.4121
   9   0.0000      -0.038935        -1.0595
  10   0.0000       0.196353         5.3430
  11   0.0000       0.205476         5.5913
  12   0.0000       0.273140         7.4325
  13   0.0000       0.273140         7.4325

MULLIKEN ATOMIC CHARGES
-----------------------
   0 C :   -0.187266
   1 C :   -0.187318
   2 H :    0.062428
   3 H :    0.062428
   4 H :    0.062428
   5 H :    0.062434
   6 H :    0.062433
   7 H :    0.062433
Sum of atomic charges:   -0.0000000

LOEWDIN ATOMIC CHARGES
----------------------
   0 C :   -0.055538
   1 C :   -0.055580
   2 H :    0.018519
   3 H :    0.018519
   4 H :    0.018518
   5 H :    0.018521
   6 H :    0.018520
   7 H :    0.018521

  Mayer bond orders larger than 0.100000
B(  0-C ,  1-C ) :   0.9467 B(  0-C ,  2-H ) :   0.9816 B(  0-C ,  3-H ) :   0.9816
B(  0-C ,  4-H ) :   0.9816 B(  1-C ,  5-H ) :   0.9816 B(  1-C ,  6-H ) :   0.9816
B(  1-C ,  7-H ) :   0.9816

FINAL SINGLE POINT ENERGY       -78.880469525796

DIPOLE MOMENT
-------------
                                X             Y             Z
Electronic contribution:     -0.00010       0.00001       0.00000
Nuclear contribution   :     -0.00001      -0.00001       0.00000
                        -----------------------------------------
Total Dipole Moment    :     -0.00011       0.00000       0.00000
                        -----------------------------------------
Magnitude (a.u.)       :      0.00011
Magnitude (Debye)      :      0.00028

Rotational constants in cm-1:     2.738863     0.130437     0.130437
Rotational constants in MHz : 82109.035211  3910.413036  3910.412512

                             ****ORCA TERMINATED NORMALLY****
TOTAL RUN TIME: 0 days 0 hours 0 minutes 9 seconds 145 msec
