                         Program Version 4.2.1 -  RELEASE  -
|  1> # Test redundant internal optimization
|  2> #
|  3> ! RKS B3LYP SVP Opt TightSCF SmallPrint
|  4> %pal
|  5> 	nprocs 8
|  6> end
|  7> * xyz 0 1
|  8> C -1.48746 -0.02867 -0.00006
|  9> O 0.37634 0.02867 -0.00006
| 10> H -1.81891 -1.06706 -0.00006
| 11> H -1.86647 0.47370 0.88993
| 12> H -1.86647 0.47370 -0.89004
| 13> H 0.75672 -0.95001 -0.00006
| 14> *
| 15>
| 16>                          ****END OF INPUT****
 Total Charge           Charge          ....    0
 Multiplicity           Mult            ....    1
 Number of Electrons    NEL             ....   18
FINAL SINGLE POINT ENERGY      -115.498914296437
FINAL SINGLE POINT ENERGY      -115.530237223021
FINAL SINGLE POINT ENERGY      -115.553006907972
FINAL SINGLE POINT ENERGY      -115.561300389232
FINAL SINGLE POINT ENERGY      -115.562826027507
FINAL SINGLE POINT ENERGY      -115.563416243702
FINAL SINGLE POINT ENERGY      -115.563427530787
FINAL SINGLE POINT ENERGY      -115.563427760542
                    ***********************HURRAY********************

CARTESIAN COORDINATES (ANGSTROEM)
---------------------------------
  C     -1.311116   -0.051535   -0.000062
  O      0.097548    0.033890   -0.000077
  H     -1.683393   -1.092152   -0.000066
  H     -1.734877    0.448868    0.891460
  H     -1.734894    0.448881   -0.891567
  H      0.460481   -0.857621   -0.000038

 Multiplicity           Mult            ....    1
 Number of Electrons    NEL             ....   18
 Basis Dimension        Dim             ....   48

ORBITAL ENERGIES
----------------

  NO   OCC          E(Eh)            E(eV)
   0   2.0000     -19.117716      -520.2195
   1   2.0000     -10.225259      -278.2435
   2   2.0000      -0.995891       -27.0996
   3   2.0000      -0.666779       -18.1440
   4   2.0000      -0.502311       -13.6686
   5   2.0000      -0.428602       -11.6629
   6   2.0000      -0.419724       -11.4213
   7   2.0000      -0.323687        -8.8080
   8   2.0000      -0.261625        -7.1192
   9   0.0000       0.050942         1.3862
  10   0.0000       0.093784         2.5520
  11   0.0000       0.136947         3.7265
  12   0.0000       0.142409         3.8751
  13   0.0000       0.206535         5.6201

MULLIKEN ATOMIC CHARGES
-----------------------
   0 C :    0.150995
   1 O :   -0.332215
   2 H :   -0.000863
   3 H :    0.009337
   4 H :    0.009339
   5 H :    0.163408
Sum of atomic charges:   -0.0000000

LOEWDIN ATOMIC CHARGES
----------------------
   0 C :    0.061443
   1 O :   -0.158789
   2 H :    0.005258
   3 H :    0.008213
   4 H :    0.008215
   5 H :    0.075660

  Mayer bond orders larger than 0.100000
B(  0-C ,  1-O ) :   1.0398 B(  0-C ,  2-H ) :   0.9797 B(  0-C ,  3-H ) :   0.9728
B(  0-C ,  4-H ) :   0.9728 B(  1-O ,  5-H ) :   0.9893

FINAL SINGLE POINT ENERGY      -115.563427804230

DIPOLE MOMENT
-------------
                                X             Y             Z
Electronic contribution:      1.89337       0.22810      -0.00003
Nuclear contribution   :     -2.17682      -0.85277       0.00006
                        -----------------------------------------
Total Dipole Moment    :     -0.28345      -0.62467       0.00003
                        -----------------------------------------
Magnitude (a.u.)       :      0.68597
Magnitude (Debye)      :      1.74360

Rotational constants in cm-1:     4.255063     0.827511     0.797857
Rotational constants in MHz : 127563.583732 24808.161216 23919.137479

                             ****ORCA TERMINATED NORMALLY****
TOTAL RUN TIME: 0 days 0 hours 1 minutes 39 seconds 739 msec
