                         Program Version 4.2.1 -  RELEASE  -
|  1> # Frequency calculation for C2H2
|  2> #
|  3> ! B3LYP TZVPP OPT NumFreq pal8
|  4> %freq CentralDiff true
|  5> end
|  6> * int 0 1
|  7> C 0 0 0 0.000 0 0
|  8> C 1 0 0 1.22 0 0
|  9> H 1 2 0 1.08 180 0
| 10> H 2 1 3 1.08 180 0
| 11> *
| 12>
| 13>                          ****END OF INPUT****
 Total Charge           Charge          ....    0
 Multiplicity           Mult            ....    1
 Number of Electrons    NEL             ....   14
FINAL SINGLE POINT ENERGY       -77.312968796659
FINAL SINGLE POINT ENERGY       -77.314393200908
FINAL SINGLE POINT ENERGY       -77.314405629260
                    ***********************HURRAY********************

CARTESIAN COORDINATES (ANGSTROEM)
---------------------------------
  C      0.011579    0.000000   -0.000000
  C      1.208421    0.000000    0.000000
  H     -1.050901   -0.000000    0.000000
  H      2.270901   -0.000000   -0.000000

 Multiplicity           Mult            ....    1
 Number of Electrons    NEL             ....   14
 Basis Dimension        Dim             ....   90

ORBITAL ENERGIES
----------------

  NO   OCC          E(Eh)            E(eV)
   0   2.0000     -10.179734      -277.0046
   1   2.0000     -10.177078      -276.9324
   2   2.0000      -0.755868       -20.5682
   3   2.0000      -0.570218       -15.5164
   4   2.0000      -0.501223       -13.6390
   5   2.0000      -0.297460        -8.0943
   6   2.0000      -0.297460        -8.0943
   7   0.0000       0.023074         0.6279
   8   0.0000       0.023074         0.6279
   9   0.0000       0.061600         1.6762
  10   0.0000       0.092191         2.5086
  11   0.0000       0.129988         3.5372

MULLIKEN ATOMIC CHARGES
-----------------------
   0 C :   -0.257626
   1 C :   -0.257626
   2 H :    0.257626
   3 H :    0.257626
Sum of atomic charges:   -0.0000000

LOEWDIN ATOMIC CHARGES
----------------------
   0 C :    0.011352
   1 C :    0.011352
   2 H :   -0.011352
   3 H :   -0.011352

  Mayer bond orders larger than 0.100000
B(  0-C ,  1-C ) :   2.9865 B(  0-C ,  2-H ) :   0.9205 B(  1-C ,  3-H ) :   0.9205

FINAL SINGLE POINT ENERGY       -77.314405790453

DIPOLE MOMENT
-------------
                                X             Y             Z
Electronic contribution:     -0.00000       0.00000      -0.00000
Nuclear contribution   :      0.00000      -0.00000      -0.00000
                        -----------------------------------------
Total Dipole Moment    :     -0.00000      -0.00000      -0.00000
                        -----------------------------------------
Magnitude (a.u.)       :      0.00000
Magnitude (Debye)      :      0.00000

VIBRATIONAL FREQUENCIES
-----------------------

Scaling factor for frequencies =  1.000000000 (already applied!)

   0:         0.00 cm**-1
   1:         0.00 cm**-1
   2:         0.00 cm**-1
   3:         0.00 cm**-1
   4:         0.00 cm**-1
   5:       649.98 cm**-1
   6:       649.98 cm**-1
   7:       764.85 cm**-1
   8:       764.85 cm**-1
   9:      2068.78 cm**-1
  10:      3417.22 cm**-1
  11:      3514.12 cm**-1

IR SPECTRUM
-----------

 Mode    freq (cm**-1)   T**2         TX         TY         TZ
-------------------------------------------------------------------
   5:       649.98    0.000000  ( -0.000000   0.000005  -0.000005)
   6:       649.98    0.000000  (  0.000000  -0.000001   0.000010)
   7:       764.85  117.768431  (  0.000003  -6.739301  -8.505895)
   8:       764.85  117.767750  ( -0.000001  -8.505875   6.739276)
   9:      2068.78    0.000164  ( -0.012792   0.000001   0.000000)
  10:      3417.22  100.724007  (-10.036135   0.000001  -0.000001)
  11:      3514.12    0.000057  (  0.007582   0.000001   0.000000)

--------------------------
THERMOCHEMISTRY AT 298.15K
--------------------------

Temperature         ... 298.15 K
Pressure            ... 1.00 atm
Total Mass          ... 26.04 AMU
The molecule is recognized as being linear

Throughout the following assumptions are being made:
  (1) The electronic state is orbitally nondegenerate
  (2) There are no thermally accessible electronically excited states
  (3) Hindered rotations indicated by low frequency modes are not
      treated as such but are treated as vibrations and this may
      cause some error
  (4) All equations used are the standard statistical mechanics
      equations for an ideal gas
  (5) All vibrations are strictly harmonic

freq.     649.98  E(vib)   ...       0.08
freq.     649.98  E(vib)   ...       0.08
freq.     764.85  E(vib)   ...       0.06
freq.     764.85  E(vib)   ...       0.06
freq.    2068.78  E(vib)   ...       0.00
freq.    3417.22  E(vib)   ...       0.00
freq.    3514.12  E(vib)   ...       0.00

------------
INNER ENERGY
------------

The inner energy is: U= E(el) + E(ZPE) + E(vib) + E(rot) + E(trans)
    E(el)   - is the total energy from the electronic structure calculation
              = E(kin-el) + E(nuc-el) + E(el-el) + E(nuc-nuc)
    E(ZPE)  - the the zero temperature vibrational energy from the frequency calculation
    E(vib)  - the the finite temperature correction to E(ZPE) due to population
              of excited vibrational states
    E(rot)  - is the rotational thermal energy
    E(trans)- is the translational thermal energy

Summary of contributions to the inner energy U:
Electronic energy                ...    -77.31440579 Eh
Zero point energy                ...      0.02695020 Eh      16.91 kcal/mol
Thermal vibrational correction   ...      0.00044774 Eh       0.28 kcal/mol
Thermal rotational correction    ...      0.00094418 Eh       0.59 kcal/mol
Thermal translational correction ...      0.00141627 Eh       0.89 kcal/mol
-----------------------------------------------------------------------
Total thermal energy                    -77.28464740 Eh

Summary of corrections to the electronic energy:
(perhaps to be used in another calculation)
Total thermal correction                  0.00280819 Eh       1.76 kcal/mol
Non-thermal (ZPE) correction              0.02695020 Eh      16.91 kcal/mol
-----------------------------------------------------------------------
Total correction                          0.02975839 Eh      18.67 kcal/mol

--------
ENTHALPY
--------

The enthalpy is H = U + kB*T
                kB is Boltzmann's constant
Total free energy                 ...    -77.28464740 Eh
Thermal Enthalpy correction       ...      0.00094421 Eh       0.59 kcal/mol
-----------------------------------------------------------------------
Total Enthalpy                    ...    -77.28370319 Eh

Note: Rotational entropy computed according to Herzberg
Infrared and Raman Spectra, Chapter V,1, Van Nostrand Reinhold, 1945
Point Group:  Dinfh, Symmetry Number:   2
Rotational constants in cm-1:     0.000000     1.190193     1.190193

Vibrational entropy computed according to the QRRHO of S. Grimme
Chem.Eur.J. 2012 18 9955

-------
ENTROPY
-------

The entropy contributions are T*S = T*(S(el)+S(vib)+S(rot)+S(trans))
     S(el)   - electronic entropy
     S(vib)  - vibrational entropy
     S(rot)  - rotational entropy
     S(trans)- translational entropy
The entropies will be listed as mutliplied by the temperature to get
units of energy

Electronic entropy                ...      0.00000000 Eh      0.00 kcal/mol
Vibrational entropy               ...      0.00057983 Eh      0.36 kcal/mol
Rotational entropy                ...      0.00516141 Eh      3.24 kcal/mol
Translational entropy             ...      0.01696549 Eh     10.65 kcal/mol
-----------------------------------------------------------------------
Final entropy term                ...      0.02270673 Eh     14.25 kcal/mol

In case the symmetry of your molecule has not been determined correctly
or in case you have a reason to use a different symmetry number we print
out the resulting rotational entropy values for sn=1,12 :
 --------------------------------------------------------
|  sn= 1 | S(rot)=      -0.00896644 Eh     -5.63 kcal/mol|
|  sn= 2 | S(rot)=      -0.00962090 Eh     -6.04 kcal/mol|
|  sn= 3 | S(rot)=      -0.01000373 Eh     -6.28 kcal/mol|
|  sn= 4 | S(rot)=      -0.01027535 Eh     -6.45 kcal/mol|
|  sn= 5 | S(rot)=      -0.01048604 Eh     -6.58 kcal/mol|
|  sn= 6 | S(rot)=      -0.01065818 Eh     -6.69 kcal/mol|
|  sn= 7 | S(rot)=      -0.01080373 Eh     -6.78 kcal/mol|
|  sn= 8 | S(rot)=      -0.01092981 Eh     -6.86 kcal/mol|
|  sn= 9 | S(rot)=      -0.01104102 Eh     -6.93 kcal/mol|
|  sn=10 | S(rot)=      -0.01114050 Eh     -6.99 kcal/mol|
|  sn=11 | S(rot)=      -0.01123049 Eh     -7.05 kcal/mol|
|  sn=12 | S(rot)=      -0.01131264 Eh     -7.10 kcal/mol|
 --------------------------------------------------------

-------------------
GIBBS FREE ENERGY
-------------------

The Gibbs free energy is G = H - T*S

Total enthalpy                    ...    -77.28370319 Eh
Total entropy correction          ...     -0.02270673 Eh    -14.25 kcal/mol
-----------------------------------------------------------------------
Final Gibbs free energy         ...    -77.30640993 Eh

For completeness - the Gibbs free energy minus the electronic energy
G-E(el)                           ...      0.00799586 Eh      5.02 kcal/mol

                             ****ORCA TERMINATED NORMALLY****
TOTAL RUN TIME: 0 days 0 hours 2 minutes 24 seconds 830 msec
